 Gaussian 03, Revision D.02,
 Gaussian 03:  EM64T-G03RevD.02  1-Mar-2006

 ------------------------------------------------------
 # opt=modredundant b3lyp/6-311g(d,p) geom=connectivity
 ------------------------------------------------------

 -------------------
 Title Card Required
 -------------------
 Symbolic Z-matrix:
 Charge =  0 Multiplicity = 3

 SCF Done:  E(UB+HF-LYP) =  -182.186075005     A.U. after   19 cycles
 SCF Done:  E(UB+HF-LYP) =  -182.236093941     A.U. after   19 cycles
 SCF Done:  E(UB+HF-LYP) =  -182.332332070     A.U. after   20 cycles
 SCF Done:  E(UB+HF-LYP) =  -182.441263811     A.U. after   17 cycles
 SCF Done:  E(UB+HF-LYP) =  -182.460489874     A.U. after   17 cycles
 SCF Done:  E(UB+HF-LYP) =  -182.463285856     A.U. after   17 cycles
 SCF Done:  E(UB+HF-LYP) =  -182.463289098     A.U. after   10 cycles
 Optimization completed.
    -- Stationary point found.

                         Standard orientation:
 ---------------------------------------------------------------------
 Center     Atomic     Atomic              Coordinates (Angstroms)
 Number     Number      Type              X           Y           Z
 ---------------------------------------------------------------------
    1          7             0        0.000000    0.000000   -1.724507
    2          7             0        0.000000    0.000000    0.462402
    3          8             0        0.000000    0.000000    1.104341
 ---------------------------------------------------------------------

 Unable to determine electronic state:  an orbital has unidentified symmetry.
 Alpha  occ. eigenvalues --  -19.52031 -14.64431 -14.16832  -1.79734  -1.08492
 Alpha  occ. eigenvalues --   -1.08050  -0.84719  -0.64555  -0.54272  -0.14944
 Alpha  occ. eigenvalues --   -0.13353  -0.10168
 Alpha virt. eigenvalues --    0.08585   0.09375   0.17950   0.31535   0.32028
 Alpha virt. eigenvalues --    0.52027   0.64001   0.68743   0.71511   0.73038
 Alpha virt. eigenvalues --    0.84889   0.85986   1.02263   1.34500   1.49946

  Beta  occ. eigenvalues --  -19.52060 -14.64339 -14.13030  -1.79710  -1.08358
  Beta  occ. eigenvalues --   -1.08337  -0.84813  -0.62355  -0.43097  -0.05684
  Beta virt. eigenvalues --    0.03624   0.08620   0.09262   0.11476   0.17947
  Beta virt. eigenvalues --    0.31828   0.31925   0.52291   0.66779   0.73647
  Beta virt. eigenvalues --    0.75438   0.81645   0.86574   0.87433   1.07511

 Mulliken atomic charges:
              1
     1  N   -0.708036
     2  N    0.577570
     3  O    0.130466
 Sum of Mulliken charges=   0.00000

 Dipole moment (field-independent basis, Debye):
    X=     0.0000    Y=     0.0000    Z=     9.4237  Tot=     9.4237
 Quadrupole moment (field-independent basis, Debye-Ang):
   XX=   -15.7793   YY=   -13.8009   ZZ=   -21.9536
   XY=     0.0000   XZ=     0.0000   YZ=     0.0000

 Normal termination of Gaussian 03 at Sun May 26 08:43:55 2013.
