 Gaussian 03, Revision D.02,
 Gaussian 03:  EM64T-G03RevD.02  1-Mar-2006

 ------------------------------------------------------
 # opt=modredundant b3lyp/6-311g(d,p) geom=connectivity
 ------------------------------------------------------

 -------------------
 Title Card Required
 -------------------
 Symbolic Z-matrix:
 Charge =  0 Multiplicity = 1

 SCF Done:  E(RB+HF-LYP) =  -181.380744861     A.U. after   13 cycles
 SCF Done:  E(RB+HF-LYP) =  -181.396582553     A.U. after   13 cycles
 SCF Done:  E(RB+HF-LYP) =  -181.399554110     A.U. after   12 cycles
 SCF Done:  E(RB+HF-LYP) =  -181.399558931     A.U. after    8 cycles
 Optimization completed.
    -- Stationary point found.

                         Standard orientation:
 ---------------------------------------------------------------------
 Center     Atomic     Atomic              Coordinates (Angstroms)
 Number     Number      Type              X           Y           Z
 ---------------------------------------------------------------------
    1          7             0        0.000000    0.000000   -1.062588
    2          7             0        0.000000    0.000000    0.184472
    3          8             0        0.000000    0.000000    0.768352
 ---------------------------------------------------------------------

 The electronic state is 1-SG.
 Alpha  occ. eigenvalues --  -19.52141 -14.76065 -14.20203  -1.71961  -1.14954
 Alpha  occ. eigenvalues --   -1.14954  -0.97135  -0.77728  -0.35020  -0.19098
 Alpha  occ. eigenvalues --   -0.19098
 Alpha virt. eigenvalues --    0.14700   0.25908   0.25908   0.32089   0.34330
 Alpha virt. eigenvalues --    0.34330   0.54849   0.68308   0.70754   0.70754
 Alpha virt. eigenvalues --    0.79338   0.95218   0.95218   1.14667   1.35461

 Mulliken atomic charges:
              1
     1  N   -0.544511
     2  N    0.564851
     3  O   -0.020340
 Sum of Mulliken charges=   0.00000

 Dipole moment (field-independent basis, Debye):
    X=     0.0000    Y=     0.0000    Z=     6.3180  Tot=     6.3180
 Quadrupole moment (field-independent basis, Debye-Ang):
   XX=   -14.5214   YY=   -14.5214   ZZ=   -18.4809
   XY=     0.0000   XZ=     0.0000   YZ=     0.0000

 Normal termination of Gaussian 03 at Sat May 25 04:54:48 2013.
