 Gaussian 03, Revision D.02,
 Gaussian 03:  EM64T-G03RevD.02  1-Mar-2006

 -----------------------
 #n B3LYP/6-31G(d,p) Opt
 -----------------------

 ----
 sio4
 ----
 Symbolic Z-matrix:
 Charge = -2 Multiplicity = 1

 SCF Done:  E(RB+HF-LYP) =  -590.243126423     A.U. after   28 cycles
 SCF Done:  E(RB+HF-LYP) =  -590.245828652     A.U. after   23 cycles
 SCF Done:  E(RB+HF-LYP) =  -590.246703556     A.U. after   22 cycles
 SCF Done:  E(RB+HF-LYP) =  -590.246775241     A.U. after   18 cycles
 Optimization completed.
    -- Stationary point found.

                         Standard orientation:
 ---------------------------------------------------------------------
 Center     Atomic     Atomic              Coordinates (Angstroms)
 Number     Number      Type              X           Y           Z
 ---------------------------------------------------------------------
    1         14             0       -0.000048   -0.000039   -0.000003
    2          8             0       -0.983222    1.003791    0.851484
    3          8             0        1.003382    0.983232   -0.851862
    4          8             0       -1.003749   -0.983638   -0.851135
    5          8             0        0.983672   -1.003316    0.851519
 ---------------------------------------------------------------------

 The electronic state is 1-A.
 Alpha  occ. eigenvalues --  -65.70886 -18.70283 -18.70282 -18.70281 -18.70280
 Alpha  occ. eigenvalues --   -4.84696  -3.20716  -3.20608  -3.20608  -0.51788
 Alpha  occ. eigenvalues --   -0.46767  -0.46767  -0.45893  -0.01758   0.05596
 Alpha  occ. eigenvalues --    0.05596   0.06008   0.11602   0.12404   0.12476
 Alpha  occ. eigenvalues --    0.12552   0.12552   0.17158   0.17158
 Alpha virt. eigenvalues --    0.21939   0.48776   0.53349   0.54615   0.54615
 Alpha virt. eigenvalues --    0.75112   0.75502   0.80402   0.80402   1.09807
 Alpha virt. eigenvalues --    1.10018   1.22513   1.22854   1.22854   1.30926

 Mulliken atomic charges:
              1
     1  Si   0.689713
     2  O   -0.672430
     3  O   -0.672387
     4  O   -0.672470
     5  O   -0.672426
 Sum of Mulliken charges=  -2.00000

 Dipole moment (field-independent basis, Debye):
    X=     0.0001    Y=     0.0001    Z=     0.0000  Tot=     0.0002
 Quadrupole moment (field-independent basis, Debye-Ang):
   XX=   -49.3981   YY=   -49.3978   ZZ=   -46.7004
   XY=     0.0000   XZ=    -0.0007   YZ=    -0.0007

 Normal termination of Gaussian 03 at Thu Oct  4 14:51:09 2012.
