 Gaussian 03, Revision D.02,
 Gaussian 03:  EM64T-G03RevD.02  1-Mar-2006

 -----------------------------------------
 # opt b3lyp/6-311g(d,p) geom=connectivity
 -----------------------------------------

 -------------------
 Title Card Required
 -------------------
 Symbolic Z-matrix:
 Charge =  0 Multiplicity = 1

 SCF Done:  E(RB+HF-LYP) =  -284.492262256     A.U. after   14 cycles
 SCF Done:  E(RB+HF-LYP) =  -284.512187981     A.U. after   13 cycles
 SCF Done:  E(RB+HF-LYP) =  -284.514621682     A.U. after   13 cycles
 SCF Done:  E(RB+HF-LYP) =  -284.513594004     A.U. after   12 cycles
 SCF Done:  E(RB+HF-LYP) =  -284.515056487     A.U. after   12 cycles
 SCF Done:  E(RB+HF-LYP) =  -284.515345119     A.U. after   11 cycles
 SCF Done:  E(RB+HF-LYP) =  -284.515429977     A.U. after   11 cycles
 SCF Done:  E(RB+HF-LYP) =  -284.515496176     A.U. after   12 cycles
 SCF Done:  E(RB+HF-LYP) =  -284.515537944     A.U. after   12 cycles
 SCF Done:  E(RB+HF-LYP) =  -284.515554980     A.U. after   10 cycles
 SCF Done:  E(RB+HF-LYP) =  -284.515557736     A.U. after    9 cycles
 SCF Done:  E(RB+HF-LYP) =  -284.515563075     A.U. after   15 cycles
 SCF Done:  E(RB+HF-LYP) =  -284.515564039     A.U. after    7 cycles
 SCF Done:  E(RB+HF-LYP) =  -284.515564568     A.U. after    9 cycles
 SCF Done:  E(RB+HF-LYP) =  -284.515564716     A.U. after    8 cycles
 Optimization completed.
    -- Stationary point found.

                         Standard orientation:
 ---------------------------------------------------------------------
 Center     Atomic     Atomic              Coordinates (Angstroms)
 Number     Number      Type              X           Y           Z
 ---------------------------------------------------------------------
    1          8             0        0.574614    1.255563    0.000052
    2          8             0        1.676735   -0.703683   -0.000057
    3          6             0       -0.743097   -0.756076    0.000093
    4          1             0       -0.761178   -1.419265    0.870359
    5          1             0       -0.761204   -1.419961   -0.869629
    6          6             0        0.636019   -0.099102   -0.000073
    7          1             0        1.492136    1.567945    0.000089
    8          7             0       -1.926981    0.085333   -0.000095
    9          1             0       -1.924677    0.695021    0.810841
   10          1             0       -1.924532    0.694961   -0.811076
 ---------------------------------------------------------------------

 The electronic state is 1-A.
 Alpha  occ. eigenvalues --  -19.17467 -19.11213 -14.29909 -10.30571 -10.21627
 Alpha  occ. eigenvalues --   -1.11761  -1.02740  -0.89755  -0.72059  -0.62375
 Alpha  occ. eigenvalues --   -0.51722  -0.50389  -0.49144  -0.45273  -0.42681
 Alpha  occ. eigenvalues --   -0.40780  -0.38474  -0.32946  -0.30767  -0.24685
 Alpha virt. eigenvalues --   -0.00004   0.02344   0.05875   0.07651   0.08711
 Alpha virt. eigenvalues --    0.14042   0.19486   0.22202   0.25715   0.32817
 Alpha virt. eigenvalues --    0.33388   0.35516   0.36920   0.39757   0.44359

 Mulliken atomic charges:
              1
     1  O   -0.327524
     2  O   -0.334686
     3  C   -0.145676
     4  H    0.151202
     5  H    0.151205
     6  C    0.299861
     7  H    0.251953
     8  N   -0.431937
     9  H    0.192801
    10  H    0.192801
 Sum of Mulliken charges=   0.00000

 Dipole moment (field-independent basis, Debye):
    X=    -0.3162    Y=     1.8397    Z=     0.0003  Tot=     1.8666
 Quadrupole moment (field-independent basis, Debye-Ang):
   XX=   -35.4431   YY=   -28.3111   ZZ=   -27.1673
   XY=     3.0018   XZ=    -0.0001   YZ=    -0.0002

 Normal termination of Gaussian 03 at Mon Oct  7 13:19:16 2013.
